 Gaussian 09, Revision B.01,
 Gaussian 09:  EM64L-G09RevB.01 12-Aug-2010

 ----------------------------------------------------------------------
 #p force td=(singlets,nstates=8,root=1) b3lyp/6-31+g* nosymm geom=chec
 kpoint scrf=(solvent=water,cpcm)
 ----------------------------------------------------------------------

 comment
 -------
 Redundant internal coordinates taken from checkpoint file:
 job.chk
 Charge =  1 Multiplicity = 1

                          Input orientation:
 ---------------------------------------------------------------------
 Center     Atomic      Atomic             Coordinates (Angstroms)
 Number     Number       Type             X           Y           Z
 ---------------------------------------------------------------------
      1          6           0       -1.762912    2.802267    0.000013
      2          7           0       -0.688468    2.010092   -0.000016
      3          6           0       -1.080773    0.684301    0.000014
      4          6           0       -2.445043    0.684298   -0.000006
      5          7           0       -2.837354    2.010087   -0.000002
      6          1           0       -0.368115   -0.124565    0.000023
      7          1           0       -3.157698   -0.124571   -0.000012
      8          1           0        0.270073    2.342642   -0.000029
      9          1           0       -1.762915    3.880815    0.000019
     10          1           0       -3.795896    2.342634   -0.000006
 ---------------------------------------------------------------------

 SCF Done:  E(RB3LYP) =  -226.686215371     A.U. after   10 cycles

 Excitation energies and oscillator strengths:

 Excited state symmetry could not be determined.
 Excited State   1:      Singlet-?Sym    6.1792 eV  200.65 nm  f=0.2479  <S**2>=0.000
      18 -> 19         0.69597
 This state for optimization and/or second-order correction.
 Total Energy, E(TD-HF/TD-KS) =  -226.459135654
 Copying the excited state density for this state as the 1-particle RhoCI density.

 Excited state symmetry could not be determined.
 Excited State   2:      Singlet-?Sym    6.9781 eV  177.68 nm  f=0.0035  <S**2>=0.000
      18 -> 21         0.70481

 Excited state symmetry could not be determined.
 Excited State   3:      Singlet-?Sym    7.2772 eV  170.37 nm  f=0.1491  <S**2>=0.000
      17 -> 19         0.24696
      18 -> 20         0.65501

 Excited state symmetry could not be determined.
 Excited State   4:      Singlet-?Sym    7.6783 eV  161.47 nm  f=0.0000  <S**2>=0.000
      18 -> 22         0.70600

 Excited state symmetry could not be determined.
 Excited State   5:      Singlet-?Sym    7.9340 eV  156.27 nm  f=0.0438  <S**2>=0.000
      18 -> 23         0.69410

 Excited state symmetry could not be determined.
 Excited State   6:      Singlet-?Sym    8.2698 eV  149.92 nm  f=0.0133  <S**2>=0.000
      18 -> 24         0.64497
      18 -> 27        -0.27856

 Excited state symmetry could not be determined.
 Excited State   7:      Singlet-?Sym    8.4301 eV  147.07 nm  f=0.0651  <S**2>=0.000
      17 -> 20         0.28083
      18 -> 26         0.64502

 Excited state symmetry could not be determined.
 Excited State   8:      Singlet-?Sym    8.4392 eV  146.91 nm  f=0.0037  <S**2>=0.000
      18 -> 23        -0.11325
      18 -> 24         0.26789
      18 -> 27         0.64165

 Alpha  occ. eigenvalues --  -14.45735 -14.45734 -10.32413 -10.27298 -10.27226
 Alpha  occ. eigenvalues --   -1.10240  -0.96772  -0.82039  -0.71519  -0.67267
 Alpha  occ. eigenvalues --   -0.62757  -0.55910  -0.50581  -0.50227  -0.49140
 Alpha  occ. eigenvalues --   -0.48162  -0.37141  -0.29627
 Alpha virt. eigenvalues --   -0.04669  -0.01030  -0.00248   0.01900   0.02973
 Alpha virt. eigenvalues --    0.04455   0.04702   0.04925   0.05546   0.08945
 Alpha virt. eigenvalues --    0.10131   0.10682   0.11393   0.13609   0.14329

 Mulliken atomic charges:
              1
     1  C    0.180805
     2  N   -0.435486
     3  C   -0.064940
     4  C   -0.064940
     5  N   -0.435486
     6  H    0.269806
     7  H    0.269806
     8  H    0.492446
     9  H    0.295545
    10  H    0.492446
 Sum of Mulliken atomic charges =   1.00000

 Dipole moment (field-independent basis, Debye):
    X=             -8.4676    Y=              9.8524    Z=              0.0000  Tot=             12.9912
 Quadrupole moment (field-independent basis, Debye-Ang):
   XX=              2.5707   YY=              2.6054   ZZ=            -30.4310
   XY=            -17.3690   XZ=              0.0000   YZ=              0.0000

 Normal termination of Gaussian 09 at Wed Mar  2 10:16:32 2011.
