 Gaussian 09, Revision B.01,
 Gaussian 09:  EM64L-G09RevB.01 12-Aug-2010

 ----------------------------------------------------------------------
 #p freq=HPmodes b3lyp/6-31+g* nosymm scrf(solvent=water,cpcm) geom=che
 ckpoint
 ----------------------------------------------------------------------

 imidazole
 ---------
 Redundant internal coordinates taken from checkpoint file:
 job.chk
 Charge =  1 Multiplicity = 1

                          Input orientation:
 ---------------------------------------------------------------------
 Center     Atomic      Atomic             Coordinates (Angstroms)
 Number     Number       Type             X           Y           Z
 ---------------------------------------------------------------------
      1          6           0       -1.762912    2.802267    0.000013
      2          7           0       -0.688468    2.010092   -0.000016
      3          6           0       -1.080773    0.684301    0.000014
      4          6           0       -2.445043    0.684298   -0.000006
      5          7           0       -2.837354    2.010087   -0.000002
      6          1           0       -0.368115   -0.124565    0.000023
      7          1           0       -3.157698   -0.124571   -0.000012
      8          1           0        0.270073    2.342642   -0.000029
      9          1           0       -1.762915    3.880815    0.000019
     10          1           0       -3.795896    2.342634   -0.000006
 ---------------------------------------------------------------------

 SCF Done:  E(RB3LYP) =  -226.686215371     A.U. after   10 cycles

 Alpha  occ. eigenvalues --  -14.45735 -14.45734 -10.32413 -10.27298 -10.27226
 Alpha  occ. eigenvalues --   -1.10240  -0.96772  -0.82039  -0.71519  -0.67267
 Alpha  occ. eigenvalues --   -0.62757  -0.55910  -0.50581  -0.50227  -0.49140
 Alpha  occ. eigenvalues --   -0.48162  -0.37141  -0.29627
 Alpha virt. eigenvalues --   -0.04669  -0.01030  -0.00248   0.01900   0.02973
 Alpha virt. eigenvalues --    0.04455   0.04702   0.04925   0.05546   0.08945
 Alpha virt. eigenvalues --    0.10131   0.10682   0.11393   0.13609   0.14329

 Mulliken atomic charges:
              1
     1  C    0.180805
     2  N   -0.435486
     3  C   -0.064940
     4  C   -0.064940
     5  N   -0.435486
     6  H    0.269806
     7  H    0.269806
     8  H    0.492446
     9  H    0.295545
    10  H    0.492446
 Sum of Mulliken atomic charges =   1.00000

 Dipole moment (field-independent basis, Debye):
    X=             -8.4676    Y=              9.8524    Z=              0.0000  Tot=             12.9912
 Quadrupole moment (field-independent basis, Debye-Ang):
   XX=              2.5707   YY=              2.6054   ZZ=            -30.4310
   XY=            -17.3690   XZ=              0.0000   YZ=              0.0000

  Exact polarizability:  58.114   0.000  60.733   0.000   0.000  30.802
 Approx polarizability:  74.485   0.000  73.658   0.000   0.000  34.602

                     1                      2                      3
                     A                      A                      A
 Frequencies --   618.7782               625.3194               683.2003
 Red. masses --     2.8152                 3.6961                 1.1971
 Frc consts  --     0.6351                 0.8515                 0.3292
 IR Inten    --   105.8054                 0.0000                 0.0000

                     4                      5                      6
                     A                      A                      A
 Frequencies --   726.2702               746.6890               861.2743
 Red. masses --     1.2058                 1.2054                 1.3043
 Frc consts  --     0.3747                 0.3960                 0.5700
 IR Inten    --   228.3940               117.2468                 0.0333

                     7                      8                      9
                     A                      A                      A
 Frequencies --   877.1838               921.0080               942.3712
 Red. masses --     1.3208                 5.0641                 4.3238
 Frc consts  --     0.5988                 2.5309                 2.2624
 IR Inten    --     0.0000                 0.6867                 0.5173

                    10                     11                     12
                     A                      A                      A
 Frequencies --  1065.6221              1121.6679              1131.9674
 Red. masses --     1.5276                 1.3097                 2.1312
 Frc consts  --     1.0220                 0.9709                 1.6090
 IR Inten    --    69.5357                34.2706                12.2049

                    13                     14                     15
                     A                      A                      A
 Frequencies --  1186.7453              1222.6828              1344.7176
 Red. masses --     1.1671                 2.4503                 1.5458
 Frc consts  --     0.9685                 2.1583                 1.6469
 IR Inten    --     0.0645                22.3783                 0.0198

                    16                     17                     18
                     A                      A                      A
 Frequencies --  1468.4433              1481.4021              1567.6621
 Red. masses --     2.1341                 3.7194                 3.7917
 Frc consts  --     2.7113                 4.8092                 5.4902
 IR Inten    --    19.2165                11.1025                20.2972

                    19                     20                     21
                     A                      A                      A
 Frequencies --  1636.1748              3323.2539              3334.5872
 Red. masses --     2.9330                 1.0942                 1.1029
 Frc consts  --     4.6262                 7.1201                 7.2257
 IR Inten    --    59.4013                17.0706                54.2384

                    22                     23                     24
                     A                      A                      A
 Frequencies --  3339.4585              3618.4938              3625.1154
 Red. masses --     1.1103                 1.0815                 1.0870
 Frc consts  --     7.2956                 8.3435                 8.4164
 IR Inten    --     1.2241               449.7227                34.3204

 - Thermochemistry -
 -------------------
 Temperature   298.150 Kelvin.  Pressure   1.00000 Atm.
 Atom     1 has atomic number  6 and mass  12.00000

 Molecular mass:    69.04527 amu.
 Principal axes and moments of inertia in atomic units:
                           1         2         3
     Eigenvalues --   193.78924 199.08879 392.87803
           X            1.00000   0.00000   0.00000
           Y            0.00000   1.00000   0.00000
           Z            0.00000   0.00000   1.00000
 This molecule is an asymmetric top.
 Rotational symmetry number  1.
 Rotational temperatures (Kelvin)      0.44695     0.43505     0.22046
 Rotational constants (GHZ):           9.31291     9.06501     4.59364
 Zero-point vibrational energy     224120.9 (Joules/Mol)
                                   53.56618 (Kcal/Mol)
 Warning -- explicit consideration of   1 degrees of freedom as
           vibrations may cause significant error
 Vibrational temperatures:    890.28   899.69   982.97  1044.94  1074.32
          (Kelvin)           1239.18  1262.07  1325.12  1355.86  1533.19
                             1613.83  1628.65  1707.46  1759.17  1934.75
                             2112.76  2131.40  2255.51  2354.09  4781.42
                             4797.72  4804.73  5206.20  5215.73

 Zero-point correction=                           0.085363 (Hartree/Particle)
 Thermal correction to Energy=                    0.089160
 Thermal correction to Enthalpy=                  0.090104
 Thermal correction to Gibbs Free Energy=         0.059020
 Sum of electronic and zero-point Energies=           -226.600852
 Sum of electronic and thermal Energies=              -226.597056
 Sum of electronic and thermal Enthalpies=            -226.596111
 Sum of electronic and thermal Free Energies=         -226.627195

                     E (Thermal)             CV                S
                      KCal/Mol        Cal/Mol-Kelvin    Cal/Mol-Kelvin
 Total                   55.949             13.947             65.421
 Electronic               0.000              0.000              0.000
 Translational            0.889              2.981             38.614
 Rotational               0.889              2.981             24.231
 Vibrational             54.171              7.986              2.576
 Vibration     1          0.979              0.992              0.418

 Optimization completed.
    -- Stationary point found.

 1\1\GINC-EINSLING\Freq\RB3LYP\6-31+G(d)\C3H5N2(1+)\REN\02-Mar-2011\0\\
 #p freq=HPmodes b3lyp/6-31+g* nosymm scrf(solvent=water,cpcm) geom=che
 ckpoint\\imidazole\\1,1\C,-1.7629123637,2.8022670262,0.0000131393\N,-0
 .6884679212,2.0100918302,-0.0000155295\C,-1.0807726851,0.6843008972,0.
 0000141295\C,-2.44504332,0.6842980903,-0.0000057607\N,-2.837353555,2.0
 10087421,-0.0000021549\H,-0.3681145647,-0.1245651935,0.0000228935\H,-3
 .1576980769,-0.1245709603,-0.0000116435\H,0.2700731631,2.3426419657,-0
 .0000288391\H,-1.7629146324,3.8808153964,0.0000192918\H,-3.7958960441,

 Normal termination of Gaussian 09 at Wed Mar  2 10:07:00 2011.
