 Gaussian 09, Revision B.01,
 Gaussian 09:  EM64L-G09RevB.01 12-Aug-2010

 ---------------------------------------------
 #p b3lyp/6-31g td(singlets,nstates=40,root=1)
 ---------------------------------------------

 -----
 title
 -----
 Symbolic Z-matrix:
 Charge =  0 Multiplicity = 1

                         Standard orientation:
 ---------------------------------------------------------------------
 Center     Atomic      Atomic             Coordinates (Angstroms)
 Number     Number       Type             X           Y           Z
 ---------------------------------------------------------------------
      1         12           0        0.000000   -0.000001   -0.000116
      2          6           0        0.444852   -3.425464   -0.000041
      3          6           0        3.425477    0.444851    0.000044
      4          6           0       -0.444849    3.425461   -0.000031
      5          6           0       -3.425481   -0.444850    0.000018
      6          7           0        1.635013   -1.259181   -0.000034
      7          6           0        1.605906   -2.645572   -0.000038
      8          6           0        2.967550   -3.149904    0.000034
      9          6           0        3.803353   -2.064517    0.000105
     10          6           0        2.967976   -0.876887    0.000034
     11          7           0        1.259192    1.635003   -0.000037
     12          6           0        2.645580    1.605904    0.000011
     13          6           0        3.149906    2.967551    0.000070
     14          6           0        2.064516    3.803349    0.000061
     15          6           0        0.876889    2.967966   -0.000013
     16          7           0       -1.635017    1.259178   -0.000029
     17          6           0       -1.605904    2.645564   -0.000029
     18          6           0       -2.967545    3.149904   -0.000006
     19          6           0       -3.803354    2.064520    0.000105
     20          6           0       -2.967984    0.876888    0.000025
     21          7           0       -1.259190   -1.635001   -0.000045
     22          6           0       -2.645583   -1.605904   -0.000027
     23          6           0       -3.149906   -2.967547   -0.000050
     24          6           0       -2.064512   -3.803347    0.000038
     25          6           0       -0.876889   -2.967966   -0.000030
     26          1           0        2.060098    4.884142    0.000084
     27          1           0        4.195977    3.239354    0.000111
     28          1           0        4.502358    0.584653    0.000071
     29          1           0        4.884147   -2.060104    0.000185
     30          1           0        3.239349   -4.195975    0.000062
     31          1           0        0.584650   -4.502345   -0.000024
     32          1           0       -2.060097   -4.884140    0.000072
     33          1           0       -4.195974   -3.239356   -0.000072
     34          1           0       -4.502362   -0.584653    0.000068
     35          1           0       -4.884148    2.060115    0.000188
     36          1           0       -3.239342    4.195977   -0.000002
     37          1           0       -0.584654    4.502341   -0.000024
 ---------------------------------------------------------------------

 SCF Done:  E(RB3LYP) =  -1188.33205421     A.U. after   12 cycles

 Excitation energies and oscillator strengths:

 Excited State   1:      Singlet-A      2.4120 eV  514.02 nm  f=0.0000  <S**2>=0.000
      85 -> 87        -0.44865
      85 -> 88        -0.14927
      86 -> 87        -0.16464
      86 -> 88         0.49484
 This state for optimization and/or second-order correction.
 Total Energy, E(TD-HF/TD-KS) =  -1188.24341365
 Copying the excited state density for this state as the 1-particle RhoCI density.

 Excited State   2:      Singlet-A      2.4120 eV  514.02 nm  f=0.0000  <S**2>=0.000
      85 -> 87        -0.14927
      85 -> 88         0.44865
      86 -> 87         0.49484
      86 -> 88         0.16464

 Excited State   3:      Singlet-A      3.5409 eV  350.14 nm  f=0.8620  <S**2>=0.000
      81 -> 87        -0.16597
      84 -> 87         0.20131
      85 -> 87         0.19074
      85 -> 88         0.46163
      86 -> 87        -0.40035
      86 -> 88         0.16542
      86 <- 87         0.10004

 Excited State   4:      Singlet-A      3.5409 eV  350.14 nm  f=0.8620  <S**2>=0.000
      81 -> 88         0.16597
      84 -> 88         0.20130
      85 -> 87         0.46163
      85 -> 88        -0.19074
      86 -> 87         0.16542
      86 -> 88         0.40036
      86 <- 88        -0.10004

 Excited State   5:      Singlet-A      3.7119 eV  334.02 nm  f=0.0000  <S**2>=0.000
      82 -> 88         0.49059
      83 -> 87         0.49070

 Excited State   6:      Singlet-A      3.7604 eV  329.71 nm  f=0.0000  <S**2>=0.000
      82 -> 87         0.29378
      82 -> 88         0.40033
      83 -> 87        -0.40021
      83 -> 88         0.29381

 Excited State   7:      Singlet-A      3.7773 eV  328.24 nm  f=0.1117  <S**2>=0.000
      84 -> 87         0.66411
      85 -> 88        -0.10582
      86 -> 87         0.15075
      86 -> 88        -0.10500

 Excited State   8:      Singlet-A      3.7773 eV  328.23 nm  f=0.1117  <S**2>=0.000
      84 -> 88         0.66411
      85 -> 87        -0.10582
      86 -> 87        -0.10500
      86 -> 88        -0.15075

 Excited State   9:      Singlet-A      3.9047 eV  317.52 nm  f=0.0000  <S**2>=0.000
      82 -> 87         0.39828
      82 -> 88        -0.29235
      83 -> 87         0.29232
      83 -> 88         0.39828

 Excited State  10:      Singlet-A      3.9870 eV  310.97 nm  f=0.0000  <S**2>=0.000
      82 -> 87         0.49226
      83 -> 88        -0.49225

 Excited State  11:      Singlet-A      4.1033 eV  302.16 nm  f=0.0000  <S**2>=0.000
      86 -> 89         0.68097

 Excited State  12:      Singlet-A      4.2338 eV  292.84 nm  f=0.2684  <S**2>=0.000
      81 -> 87         0.68057
      85 -> 88         0.12638
      86 -> 87        -0.11388

 Excited State  13:      Singlet-A      4.2338 eV  292.84 nm  f=0.2684  <S**2>=0.000
      81 -> 88         0.68057
      85 -> 87        -0.12638
      86 -> 88        -0.11388

 Excited State  14:      Singlet-A      4.2969 eV  288.55 nm  f=0.0000  <S**2>=0.000
      78 -> 87         0.11324
      79 -> 88        -0.11324
      85 -> 89         0.66706

 Excited State  15:      Singlet-A      4.4632 eV  277.79 nm  f=0.0000  <S**2>=0.000
      80 -> 87         0.70473

 Excited State  16:      Singlet-A      4.4632 eV  277.79 nm  f=0.0000  <S**2>=0.000
      80 -> 88         0.70472

 Excited State  17:      Singlet-A      4.6962 eV  264.01 nm  f=0.0000  <S**2>=0.000
      78 -> 87         0.45234
      78 -> 88         0.20498
      79 -> 87        -0.20498
      79 -> 88         0.45234

 Excited State  18:      Singlet-A      4.8751 eV  254.32 nm  f=0.0000  <S**2>=0.000
      78 -> 87         0.20477
      78 -> 88        -0.45185
      79 -> 87         0.45186
      79 -> 88         0.20477

 Excited State  19:      Singlet-A      5.1839 eV  239.17 nm  f=0.0000  <S**2>=0.000
      78 -> 87        -0.36033
      78 -> 88        -0.27594
      79 -> 87        -0.27593
      79 -> 88         0.36033
      85 -> 89         0.16481
      86 -> 92         0.23143

 Excited State  20:      Singlet-A      5.2474 eV  236.28 nm  f=0.0000  <S**2>=0.000
      76 -> 87         0.27611
      76 -> 88        -0.39752
      77 -> 87         0.39772
      77 -> 88         0.27622
      80 -> 89         0.17454

 Excited State  21:      Singlet-A      5.2917 eV  234.30 nm  f=0.0000  <S**2>=0.000
      76 -> 87        -0.44380
      76 -> 88        -0.22659
      77 -> 87        -0.22675
      77 -> 88         0.44402

 Excited State  22:      Singlet-A      5.3207 eV  233.02 nm  f=0.0000  <S**2>=0.000
      78 -> 87        -0.27298
      78 -> 88         0.35648
      79 -> 87         0.35647
      79 -> 88         0.27298
      81 -> 89         0.16971
      85 -> 92        -0.20258
      86 -> 89         0.12956

 Excited State  23:      Singlet-A      5.3395 eV  232.20 nm  f=0.0000  <S**2>=0.000
      76 -> 87        -0.22694
      76 -> 88         0.44415
      77 -> 87         0.44410
      77 -> 88         0.22662

 Excited State  24:      Singlet-A      5.3618 eV  231.24 nm  f=0.0030  <S**2>=0.000
      76 -> 87         0.40891
      76 -> 88         0.28413
      77 -> 87        -0.28380
      77 -> 88         0.40878

 Excited State  25:      Singlet-A      5.3903 eV  230.01 nm  f=0.0000  <S**2>=0.000
      84 -> 89         0.70195

 Excited State  26:      Singlet-A      5.4707 eV  226.63 nm  f=0.0949  <S**2>=0.000
      83 -> 89         0.70015

 Excited State  27:      Singlet-A      5.4707 eV  226.63 nm  f=0.0949  <S**2>=0.000
      82 -> 89         0.70015

 Excited State  28:      Singlet-A      5.5055 eV  225.20 nm  f=0.0000  <S**2>=0.000
      86 -> 90         0.70393

 Excited State  29:      Singlet-A      5.5090 eV  225.06 nm  f=0.0120  <S**2>=0.000
      86 -> 91         0.70440

 Excited State  30:      Singlet-A      5.6820 eV  218.21 nm  f=0.0000  <S**2>=0.000
      85 -> 90         0.70477

 Excited State  31:      Singlet-A      5.6874 eV  218.00 nm  f=0.0000  <S**2>=0.000
      85 -> 91         0.70602

 Excited State  32:      Singlet-A      5.8676 eV  211.30 nm  f=0.0000  <S**2>=0.000
      81 -> 89         0.65035
      85 -> 92         0.24931

 Excited State  33:      Singlet-A      6.0469 eV  205.04 nm  f=0.0000  <S**2>=0.000
      84 -> 90         0.14782
      85 -> 89        -0.12606
      86 -> 92         0.64246

 Excited State  34:      Singlet-A      6.0819 eV  203.86 nm  f=0.0065  <S**2>=0.000
      75 -> 87         0.66675
      79 -> 89         0.12718
      86 -> 93         0.13508

 Excited State  35:      Singlet-A      6.0819 eV  203.86 nm  f=0.0065  <S**2>=0.000
      75 -> 88         0.66675
      78 -> 89        -0.12718
      86 -> 94         0.13508

 Excited State  36:      Singlet-A      6.2040 eV  199.85 nm  f=0.0000  <S**2>=0.000
      76 -> 88         0.10162
      77 -> 87        -0.10162
      80 -> 89         0.68326

 Excited State  37:      Singlet-A      6.2816 eV  197.38 nm  f=0.0000  <S**2>=0.000
      78 -> 88         0.11141
      79 -> 87         0.11141
      81 -> 89        -0.18813
      85 -> 92         0.61654

 Excited State  38:      Singlet-A      6.3301 eV  195.87 nm  f=0.0723  <S**2>=0.000
      79 -> 89        -0.16097
      86 -> 93         0.66765

 Excited State  39:      Singlet-A      6.3301 eV  195.87 nm  f=0.0723  <S**2>=0.000
      78 -> 89         0.16097
      86 -> 94         0.66765

 Excited State  40:      Singlet-A      6.5293 eV  189.89 nm  f=0.0000  <S**2>=0.000
      78 -> 89         0.55466
      79 -> 89         0.23449
      85 -> 93         0.29182
      85 -> 94         0.14210

 The electronic state is 1-A.
 Alpha  occ. eigenvalues --  -46.75505 -14.32130 -14.32130 -14.32130 -14.32129
 Alpha  occ. eigenvalues --  -10.22072 -10.22072 -10.22070 -10.22069 -10.22069
 Alpha  occ. eigenvalues --  -10.22069 -10.22068 -10.22068 -10.19592 -10.19592
 Alpha  occ. eigenvalues --  -10.19592 -10.19591 -10.18642 -10.18642 -10.18642
 Alpha  occ. eigenvalues --  -10.18641 -10.18584 -10.18584 -10.18584 -10.18584
 Alpha  occ. eigenvalues --   -3.04895  -1.79702  -1.79125  -1.79125  -0.96010
 Alpha  occ. eigenvalues --   -0.95215  -0.95215  -0.94324  -0.81427  -0.78874
 Alpha  occ. eigenvalues --   -0.78874  -0.76834  -0.76338  -0.76338  -0.75985
 Alpha  occ. eigenvalues --   -0.74108  -0.71584  -0.65618  -0.65618  -0.59701
 Alpha  occ. eigenvalues --   -0.57655  -0.56972  -0.56972  -0.56877  -0.54725
 Alpha  occ. eigenvalues --   -0.53389  -0.51944  -0.51944  -0.50652  -0.49737
 Alpha  occ. eigenvalues --   -0.49737  -0.44853  -0.43562  -0.42537  -0.42537
 Alpha  occ. eigenvalues --   -0.42282  -0.42031  -0.41295  -0.40533  -0.40533
 Alpha  occ. eigenvalues --   -0.38990  -0.38990  -0.38496  -0.38233  -0.37634
 Alpha  occ. eigenvalues --   -0.37634  -0.36982  -0.36942  -0.35810  -0.32209
 Alpha  occ. eigenvalues --   -0.30795  -0.30794  -0.27847  -0.27847  -0.27641
 Alpha  occ. eigenvalues --   -0.25526  -0.24338  -0.24338  -0.24057  -0.19465
 Alpha  occ. eigenvalues --   -0.18973
 Alpha virt. eigenvalues --   -0.08069  -0.08069  -0.02229   0.04006   0.04230
 Alpha virt. eigenvalues --    0.04948   0.06662   0.06662   0.08039   0.09463
 Alpha virt. eigenvalues --    0.09463   0.09869   0.11811   0.11811   0.12648

 Mulliken atomic charges:
              1
     1  Mg   1.185684
     2  C   -0.157471
     3  C   -0.157469
     4  C   -0.157470
     5  C   -0.157470
     6  N   -0.754900
     7  C    0.254155
     8  C   -0.148795
     9  C   -0.148797
    10  C    0.253945
    11  N   -0.754900
    12  C    0.254155
    13  C   -0.148796
    14  C   -0.148796
    15  C    0.253945
    16  N   -0.754898
    17  C    0.254157
    18  C   -0.148799
    19  C   -0.148794
    20  C    0.253942
    21  N   -0.754901
    22  C    0.254154
    23  C   -0.148796
    24  C   -0.148798
    25  C    0.253947
    26  H    0.137692
    27  H    0.137698
    28  H    0.130052
    29  H    0.137692
    30  H    0.137698
    31  H    0.130052
    32  H    0.137692
    33  H    0.137697
    34  H    0.130052
    35  H    0.137692
    36  H    0.137697
    37  H    0.130052
 Sum of Mulliken atomic charges =   0.00000

 Dipole moment (field-independent basis, Debye):
    X=              0.0000    Y=              0.0000    Z=             -0.0001  Tot=              0.0001
 Quadrupole moment (field-independent basis, Debye-Ang):
   XX=           -123.8471   YY=           -123.8471   ZZ=           -150.9650
   XY=              0.0000   XZ=              0.0002   YZ=              0.0000

 Normal termination of Gaussian 09 at Fri Jan  4 15:18:08 2013.
