 Gaussian 09, Revision B.01,
 Gaussian 09:  EM64L-G09RevB.01 12-Aug-2010

 -------------------------
 #p opt B3LYP/6-31G nosymm
 -------------------------

 -------
 comment
 -------
 Symbolic Z-matrix:
 Charge =  0 Multiplicity = 1

 SCF Done:  E(RB3LYP) =  -232.080846104     A.U. after   11 cycles
 SCF Done:  E(RB3LYP) =  -232.153497017     A.U. after   10 cycles
 SCF Done:  E(RB3LYP) =  -232.194329263     A.U. after   11 cycles
 SCF Done:  E(RB3LYP) =  -232.198676109     A.U. after   11 cycles
 SCF Done:  E(RB3LYP) =  -232.198710017     A.U. after    7 cycles
 Optimization completed.
    -- Stationary point found.

                          Input orientation:
 ---------------------------------------------------------------------
 Center     Atomic      Atomic             Coordinates (Angstroms)
 Number     Number       Type             X           Y           Z
 ---------------------------------------------------------------------
      1          6           0       -1.189682    2.348871    0.000000
      2          6           0        0.023204    1.648568    0.000000
      3          6           0        0.023204    0.248032    0.000000
      4          6           0       -1.189682   -0.452271    0.000000
      5          6           0       -2.402571    0.248031    0.000000
      6          6           0       -2.402571    1.648569    0.000000
      7          1           0       -1.189680    3.434472    0.000000
      8          1           0        0.963366    2.191368    0.000000
      9          1           0        0.963366   -0.294768    0.000000
     10          1           0       -1.189680   -1.537872    0.000000
     11          1           0       -3.342735   -0.294770    0.000000
     12          1           0       -3.342735    2.191370    0.000000
 ---------------------------------------------------------------------

 Alpha  occ. eigenvalues --  -10.18567 -10.18547 -10.18547 -10.18502 -10.18502
 Alpha  occ. eigenvalues --  -10.18483  -0.85113  -0.74387  -0.74387  -0.60111
 Alpha  occ. eigenvalues --   -0.60111  -0.52265  -0.46065  -0.44366  -0.42162
 Alpha  occ. eigenvalues --   -0.42161  -0.36143  -0.34234  -0.34233  -0.24819
 Alpha  occ. eigenvalues --   -0.24818
 Alpha virt. eigenvalues --    0.00374   0.00374   0.09275   0.14393   0.14393
 Alpha virt. eigenvalues --    0.16040   0.18104   0.18105   0.19014   0.30303
 Alpha virt. eigenvalues --    0.30303   0.32080   0.32082   0.49723   0.52622

 Mulliken atomic charges:
              1
     1  C   -0.124669
     2  C   -0.124651
     3  C   -0.124651
     4  C   -0.124669
     5  C   -0.124651
     6  C   -0.124651
     7  H    0.124669
     8  H    0.124650
     9  H    0.124650
    10  H    0.124669
    11  H    0.124651
    12  H    0.124651
 Sum of Mulliken atomic charges =   0.00000

 Dipole moment (field-independent basis, Debye):
    X=              0.0000    Y=              0.0000    Z=              0.0000  Tot=              0.0000
 Quadrupole moment (field-independent basis, Debye-Ang):
   XX=            -31.5726   YY=            -31.5720   ZZ=            -38.9113
   XY=              0.0000   XZ=              0.0000   YZ=              0.0000

 Normal termination of Gaussian 09 at Mon Feb 28 11:25:58 2011.
