 Gaussian 09, Revision B.01,
 Gaussian 09:  EM64L-G09RevB.01 12-Aug-2010

 ----------------------------------------------------------------------
 #p td=(singlets,nstates=40,root=1) force b3lyp/6-311++g(2df,p) scrf=(p
 cm,solvent=CycloHexane)
 ----------------------------------------------------------------------

 -------------------
 Title Card Required
 -------------------
 Symbolic Z-matrix:
 Charge =  0 Multiplicity = 1

                         Standard orientation:
 ---------------------------------------------------------------------
 Center     Atomic      Atomic             Coordinates (Angstroms)
 Number     Number       Type             X           Y           Z
 ---------------------------------------------------------------------
      1          6           0       -2.547132   -0.166455    0.000044
      2          6           0       -1.899845   -1.409016    0.000007
      3          6           0       -0.524876   -1.453985   -0.000042
      4          6           0        0.215596   -0.265865   -0.000056
      5          6           0       -0.427546    0.991973    0.000000
      6          6           0       -1.827665    1.009899    0.000040
      7          1           0       -3.629529   -0.124620    0.000084
      8          1           0       -2.473162   -2.326131    0.000010
      9          1           0        0.010165   -2.392504   -0.000082
     10          1           0       -2.319117    1.974060    0.000084
     11          8           0        0.212017    2.163415    0.000051
     12          1           0        1.175553    1.969777    0.000096
     13          7           0        1.656431   -0.361342   -0.000153
     14          8           0        2.317596    0.695633   -0.000018
     15          8           0        2.184122   -1.460359    0.000082
 ---------------------------------------------------------------------

 SCF Done:  E(RB3LYP) =  -512.162158119     A.U. after   14 cycles

 Excitation energies and oscillator strengths:

 Excited State   1:      Singlet-A      3.3853 eV  366.24 nm  f=0.0761  <S**2>=0.000
      36 -> 37         0.69845
 This state for optimization and/or second-order correction.
 Total Energy, E(TD-HF/TD-KS) =  -512.037751249
 Copying the excited state density for this state as the 1-particle RhoCI density.

 Excited State   2:      Singlet-A      3.9538 eV  313.58 nm  f=0.0000  <S**2>=0.000
      34 -> 37         0.69299

 Excited State   3:      Singlet-A      4.4265 eV  280.10 nm  f=0.2570  <S**2>=0.000
      35 -> 37         0.69373

 Excited State   4:      Singlet-A      4.4345 eV  279.59 nm  f=0.0006  <S**2>=0.000
      33 -> 37         0.69107

 Excited State   5:      Singlet-A      5.5741 eV  222.43 nm  f=0.0286  <S**2>=0.000
      35 -> 38        -0.21694
      35 -> 39        -0.15324
      36 -> 38         0.54551
      36 -> 39        -0.34182

 Excited State   6:      Singlet-A      5.9091 eV  209.82 nm  f=0.0732  <S**2>=0.000
      31 -> 37        -0.24747
      32 -> 37         0.41517
      35 -> 38         0.19161
      36 -> 38         0.23531
      36 -> 39         0.40601

 Excited State   7:      Singlet-A      6.0896 eV  203.60 nm  f=0.0037  <S**2>=0.000
      36 -> 40         0.69977

 Excited State   8:      Singlet-A      6.0912 eV  203.54 nm  f=0.2258  <S**2>=0.000
      31 -> 37         0.11967
      32 -> 37         0.53899
      35 -> 38        -0.21052
      36 -> 38        -0.27916
      36 -> 39        -0.23248

 Excited State   9:      Singlet-A      6.1671 eV  201.04 nm  f=0.0005  <S**2>=0.000
      30 -> 37         0.69781

 Excited State  10:      Singlet-A      6.3844 eV  194.20 nm  f=0.0610  <S**2>=0.000
      31 -> 37         0.61552
      35 -> 39        -0.17844
      36 -> 38         0.15069
      36 -> 39         0.23329

 Excited State  11:      Singlet-A      6.4928 eV  190.96 nm  f=0.0009  <S**2>=0.000
      36 -> 41         0.69227

 Excited State  12:      Singlet-A      6.6884 eV  185.37 nm  f=0.0114  <S**2>=0.000
      36 -> 42         0.70082

 Excited State  13:      Singlet-A      6.9038 eV  179.59 nm  f=0.4919  <S**2>=0.000
      31 -> 37         0.14156
      35 -> 38         0.56990
      36 -> 39        -0.30411
      36 -> 46         0.12888

 Excited State  14:      Singlet-A      6.9193 eV  179.19 nm  f=0.0002  <S**2>=0.000
      29 -> 37        -0.38258
      34 -> 38         0.55926
      34 -> 39        -0.14785

 Excited State  15:      Singlet-A      7.0355 eV  176.23 nm  f=0.0058  <S**2>=0.000
      29 -> 37         0.25472
      34 -> 38         0.19699
      35 -> 40         0.61565

 Excited State  16:      Singlet-A      7.0471 eV  175.94 nm  f=0.0005  <S**2>=0.000
      29 -> 37         0.48788
      34 -> 38         0.35968
      35 -> 40        -0.32655

 Excited State  17:      Singlet-A      7.1879 eV  172.49 nm  f=0.3102  <S**2>=0.000
      31 -> 37         0.11305
      35 -> 38        -0.12356
      35 -> 39         0.63536
      36 -> 38         0.16778

 Excited State  18:      Singlet-A      7.2369 eV  171.32 nm  f=0.0004  <S**2>=0.000
      28 -> 37        -0.21930
      33 -> 38         0.36750
      34 -> 39         0.52858
      36 -> 43         0.11853

 Excited State  19:      Singlet-A      7.2582 eV  170.82 nm  f=0.0007  <S**2>=0.000
      34 -> 39        -0.10983
      36 -> 43         0.66355
      36 -> 44         0.11961

 Excited State  20:      Singlet-A      7.3080 eV  169.66 nm  f=0.0001  <S**2>=0.000
      28 -> 37         0.26018
      29 -> 37         0.17856
      33 -> 38         0.55075
      33 -> 39        -0.14342
      34 -> 39        -0.25891

 Excited State  21:      Singlet-A      7.4039 eV  167.46 nm  f=0.0000  <S**2>=0.000
      28 -> 37         0.50370
      33 -> 38        -0.13104
      33 -> 39        -0.13992
      34 -> 39         0.30059
      36 -> 43         0.10079
      36 -> 44        -0.26375
      36 -> 45        -0.13764

 Excited State  22:      Singlet-A      7.4181 eV  167.14 nm  f=0.0019  <S**2>=0.000
      28 -> 37         0.26417
      34 -> 39         0.13027
      36 -> 43        -0.13249
      36 -> 44         0.55465
      36 -> 45         0.25774

 Excited State  23:      Singlet-A      7.4922 eV  165.49 nm  f=0.0019  <S**2>=0.000
      35 -> 41         0.66608
      35 -> 42        -0.14225
      36 -> 45        -0.10944

 Excited State  24:      Singlet-A      7.5940 eV  163.27 nm  f=0.0214  <S**2>=0.000
      32 -> 38         0.59601
      36 -> 46        -0.35790

 Excited State  25:      Singlet-A      7.6270 eV  162.56 nm  f=0.0019  <S**2>=0.000
      32 -> 38         0.36389
      36 -> 46         0.58774

 Excited State  26:      Singlet-A      7.6336 eV  162.42 nm  f=0.0011  <S**2>=0.000
      28 -> 37         0.19728
      33 -> 38         0.10367
      33 -> 39         0.63363
      35 -> 42        -0.13407

 Excited State  27:      Singlet-A      7.6399 eV  162.28 nm  f=0.0085  <S**2>=0.000
      33 -> 39         0.13881
      35 -> 41         0.16557
      35 -> 42         0.65370

 Excited State  28:      Singlet-A      7.6479 eV  162.11 nm  f=0.0019  <S**2>=0.000
      35 -> 42        -0.15986
      36 -> 44        -0.29728
      36 -> 45         0.60102

 Excited State  29:      Singlet-A      7.8621 eV  157.70 nm  f=0.0112  <S**2>=0.000
      32 -> 39        -0.14701
      34 -> 40         0.61123
      34 -> 41        -0.26622
      34 -> 42         0.14593

 Excited State  30:      Singlet-A      7.9954 eV  155.07 nm  f=0.0979  <S**2>=0.000
      32 -> 39         0.66329
      34 -> 40         0.16829

 Excited State  31:      Singlet-A      8.1586 eV  151.97 nm  f=0.0031  <S**2>=0.000
      27 -> 37         0.60158
      31 -> 38        -0.15471
      33 -> 40         0.11374
      34 -> 40        -0.11877
      34 -> 41        -0.25147

 Excited State  32:      Singlet-A      8.2064 eV  151.08 nm  f=0.0007  <S**2>=0.000
      30 -> 38        -0.46462
      35 -> 43         0.48252
      35 -> 44         0.12285

 Excited State  33:      Singlet-A      8.2075 eV  151.06 nm  f=0.0711  <S**2>=0.000
      27 -> 37         0.28924
      33 -> 40        -0.31395
      33 -> 41         0.23102
      34 -> 40         0.16833
      34 -> 41         0.44632

 Excited State  34:      Singlet-A      8.2114 eV  150.99 nm  f=0.0039  <S**2>=0.000
      26 -> 37         0.10307
      30 -> 38         0.49174
      35 -> 43         0.45477

 Excited State  35:      Singlet-A      8.2825 eV  149.69 nm  f=0.0361  <S**2>=0.000
      33 -> 40         0.52525
      33 -> 41        -0.10087
      34 -> 40         0.18800
      34 -> 41         0.33320
      34 -> 42        -0.17208

 Excited State  36:      Singlet-A      8.3542 eV  148.41 nm  f=0.0005  <S**2>=0.000
      32 -> 40         0.57775
      32 -> 41        -0.30499
      32 -> 42         0.15104
      35 -> 44         0.17645

 Excited State  37:      Singlet-A      8.4050 eV  147.51 nm  f=0.0000  <S**2>=0.000
      32 -> 40        -0.14281
      35 -> 43        -0.18981
      35 -> 44         0.53851
      35 -> 45         0.18931
      36 -> 47         0.30448

 Excited State  38:      Singlet-A      8.4309 eV  147.06 nm  f=0.0000  <S**2>=0.000
      26 -> 37        -0.10543
      35 -> 44        -0.22037
      35 -> 45        -0.17622
      36 -> 47         0.60978

 Excited State  39:      Singlet-A      8.4690 eV  146.40 nm  f=0.0063  <S**2>=0.000
      31 -> 38        -0.25151
      33 -> 40         0.18562
      34 -> 40        -0.10622
      34 -> 41         0.10905
      34 -> 42         0.57394
      35 -> 46         0.11869
      36 -> 49         0.10783

 Excited State  40:      Singlet-A      8.4937 eV  145.97 nm  f=0.0502  <S**2>=0.000
      31 -> 38         0.45884
      31 -> 39        -0.12673
      34 -> 42         0.28000
      35 -> 46        -0.34901
      36 -> 48        -0.18691
      36 -> 49        -0.11116

 The electronic state is 1-A.
 Alpha  occ. eigenvalues --  -19.17872 -19.17759 -19.17531 -14.57291 -10.28032
 Alpha  occ. eigenvalues --  -10.24979 -10.21054 -10.20940 -10.19813 -10.19685
 Alpha  occ. eigenvalues --   -1.25191  -1.10013  -1.07198  -0.90058  -0.82985
 Alpha  occ. eigenvalues --   -0.77874  -0.71964  -0.64525  -0.64108  -0.58267
 Alpha  occ. eigenvalues --   -0.55985  -0.55834  -0.54259  -0.51437  -0.48821
 Alpha  occ. eigenvalues --   -0.46508  -0.44574  -0.42487  -0.40999  -0.38161
 Alpha  occ. eigenvalues --   -0.37485  -0.34063  -0.33701  -0.32207  -0.29727
 Alpha  occ. eigenvalues --   -0.26186
 Alpha virt. eigenvalues --   -0.11512  -0.03334  -0.01852  -0.00951   0.00665
 Alpha virt. eigenvalues --    0.00978   0.03067   0.03945   0.04630   0.05001
 Alpha virt. eigenvalues --    0.07447   0.08111   0.08245   0.08890   0.09765

 Mulliken atomic charges:
              1
     1  C   -0.292484
     2  C   -0.300551
     3  C   -0.087927
     4  C    0.755737
     5  C   -0.335486
     6  C   -0.229468
     7  H    0.189424
     8  H    0.190011
     9  H    0.240086
    10  H    0.202247
    11  O   -0.330105
    12  H    0.353420
    13  N   -0.086146
    14  O   -0.144090
    15  O   -0.124668
 Sum of Mulliken atomic charges =   0.00000

 Dipole moment (field-independent basis, Debye):
    X=             -4.3201    Y=             -0.5989    Z=             -0.0002  Tot=              4.3614
 Quadrupole moment (field-independent basis, Debye-Ang):
   XX=            -58.3744   YY=            -57.3567   ZZ=            -58.4062
   XY=              3.4522   XZ=             -0.0007   YZ=              0.0006

 Normal termination of Gaussian 09 at Tue Dec 10 12:55:14 2013.
