 Gaussian 09, Revision B.01,
 Gaussian 09:  EM64L-G09RevB.01 12-Aug-2010

 --------------------------------------------------------------------
 #p b3lyp/6-311++g(2df,p) scrf=(pcm,solvent=CycloHexane) freq=HPModes
 --------------------------------------------------------------------

 -------------------
 Title Card Required
 -------------------
 Symbolic Z-matrix:
 Charge =  0 Multiplicity = 1

                         Standard orientation:
 ---------------------------------------------------------------------
 Center     Atomic      Atomic             Coordinates (Angstroms)
 Number     Number       Type             X           Y           Z
 ---------------------------------------------------------------------
      1          6           0       -2.547132   -0.166455    0.000044
      2          6           0       -1.899845   -1.409016    0.000007
      3          6           0       -0.524876   -1.453985   -0.000042
      4          6           0        0.215596   -0.265865   -0.000056
      5          6           0       -0.427546    0.991973    0.000000
      6          6           0       -1.827665    1.009899    0.000040
      7          1           0       -3.629529   -0.124620    0.000084
      8          1           0       -2.473162   -2.326131    0.000010
      9          1           0        0.010165   -2.392504   -0.000082
     10          1           0       -2.319117    1.974060    0.000084
     11          8           0        0.212017    2.163415    0.000051
     12          1           0        1.175553    1.969777    0.000096
     13          7           0        1.656431   -0.361342   -0.000153
     14          8           0        2.317596    0.695633   -0.000018
     15          8           0        2.184122   -1.460359    0.000082
 ---------------------------------------------------------------------

 SCF Done:  E(RB3LYP) =  -512.162158119     A.U. after   14 cycles

 The electronic state is 1-A.
 Alpha  occ. eigenvalues --  -19.17872 -19.17759 -19.17531 -14.57291 -10.28032
 Alpha  occ. eigenvalues --  -10.24979 -10.21054 -10.20940 -10.19813 -10.19685
 Alpha  occ. eigenvalues --   -1.25191  -1.10013  -1.07198  -0.90058  -0.82985
 Alpha  occ. eigenvalues --   -0.77874  -0.71964  -0.64525  -0.64108  -0.58267
 Alpha  occ. eigenvalues --   -0.55985  -0.55834  -0.54259  -0.51437  -0.48821
 Alpha  occ. eigenvalues --   -0.46508  -0.44574  -0.42487  -0.40999  -0.38161
 Alpha  occ. eigenvalues --   -0.37485  -0.34063  -0.33701  -0.32207  -0.29727
 Alpha  occ. eigenvalues --   -0.26186
 Alpha virt. eigenvalues --   -0.11512  -0.03334  -0.01852  -0.00951   0.00665
 Alpha virt. eigenvalues --    0.00978   0.03067   0.03945   0.04630   0.05001
 Alpha virt. eigenvalues --    0.07447   0.08111   0.08245   0.08890   0.09765

 Mulliken atomic charges:
              1
     1  C   -0.292484
     2  C   -0.300551
     3  C   -0.087927
     4  C    0.755737
     5  C   -0.335486
     6  C   -0.229468
     7  H    0.189424
     8  H    0.190011
     9  H    0.240086
    10  H    0.202247
    11  O   -0.330105
    12  H    0.353420
    13  N   -0.086146
    14  O   -0.144090
    15  O   -0.124668
 Sum of Mulliken atomic charges =   0.00000

 Dipole moment (field-independent basis, Debye):
    X=             -4.3201    Y=             -0.5989    Z=             -0.0002  Tot=              4.3614
 Quadrupole moment (field-independent basis, Debye-Ang):
   XX=            -58.3744   YY=            -57.3567   ZZ=            -58.4062
   XY=              3.4522   XZ=             -0.0007   YZ=              0.0006

  Exact polarizability: 144.632  -0.839 120.880  -0.001   0.000  53.523
 Approx polarizability: 204.899  -2.286 200.164  -0.001  -0.001  76.394

                     1                      2                      3
                     A                      A                      A
 Frequencies --    82.3191               145.6808               250.7712
 Red. masses --    10.7717                 5.3626                 5.5359
 Frc consts  --     0.0430                 0.0671                 0.2051
 IR Inten    --     0.8083                 0.4123                 0.0965

                     4                      5                      6
                     A                      A                      A
 Frequencies --   290.0489               379.8203               435.8488
 Red. masses --     7.2225                 7.6187                 3.4921
 Frc consts  --     0.3580                 0.6476                 0.3909
 IR Inten    --     6.8237                 7.8588                 0.4781

                     7                      8                      9
                     A                      A                      A
 Frequencies --   436.9382               538.0049               554.9641
 Red. masses --     8.7553                 3.1822                 7.0618
 Frc consts  --     0.9848                 0.5427                 1.2814
 IR Inten    --     2.1630                 9.9740                10.0133

                    10                     11                     12
                     A                      A                      A
 Frequencies --   570.8526               683.5764               711.6367
 Red. masses --     6.4633                 6.8526                 3.4067
 Frc consts  --     1.2410                 1.8866                 1.0165
 IR Inten    --     1.3482                13.3068                18.4115

                    13                     14                     15
                     A                      A                      A
 Frequencies --   742.1696               762.7201               799.7461
 Red. masses --     1.1713                 1.7056                 2.6242
 Frc consts  --     0.3801                 0.5846                 0.9889
 IR Inten    --   152.8414                23.9407                 7.8389

                    16                     17                     18
                     A                      A                      A
 Frequencies --   837.1774               880.8640               885.5896
 Red. masses --     7.4835                 1.5288                 7.6945
 Frc consts  --     3.0902                 0.6989                 3.5555
 IR Inten    --    12.3389                 1.8159                19.8847

                    19                     20                     21
                     A                      A                      A
 Frequencies --   982.0302              1005.3619              1049.8626
 Red. masses --     1.3468                 1.3332                 2.2932
 Frc consts  --     0.7653                 0.7939                 1.4892
 IR Inten    --     1.5876                 0.1786                19.3352

                    22                     23                     24
                     A                      A                      A
 Frequencies --  1106.6515              1160.4393              1187.3839
 Red. masses --     3.1069                 1.5897                 1.2513
 Frc consts  --     2.2418                 1.2613                 1.0394
 IR Inten    --    38.3813                61.1286                20.3391

                    25                     26                     27
                     A                      A                      A
 Frequencies --  1229.2832              1278.3999              1314.4370
 Red. masses --     1.5558                 5.2680                 2.8887
 Frc consts  --     1.3852                 5.0725                 2.9406
 IR Inten    --   158.4669               254.8933               277.7956

                    28                     29                     30
                     A                      A                      A
 Frequencies --  1368.9314              1410.0207              1482.7937
 Red. masses --     3.5506                 2.1638                 3.3421
 Frc consts  --     3.9202                 2.5346                 4.3294
 IR Inten    --    99.2353               114.8120               163.5126

                    31                     32                     33
                     A                      A                      A
 Frequencies --  1510.8770              1569.9713              1617.8304
 Red. masses --     2.5495                 4.5811                 4.9060
 Frc consts  --     3.4290                 6.6528                 7.5657
 IR Inten    --   138.0322               209.1028                95.1651

                    34                     35                     36
                     A                      A                      A
 Frequencies --  1656.2812              3177.6773              3195.5115
 Red. masses --     5.9840                 1.0877                 1.0905
 Frc consts  --     9.6719                 6.4714                 6.5608
 IR Inten    --   146.4645                 4.6604                 5.3144

                    37                     38                     39
                     A                      A                      A
 Frequencies --  3200.6208              3220.7239              3446.4754
 Red. masses --     1.0950                 1.0933                 1.0653
 Frc consts  --     6.6087                 6.6817                 7.4553
 IR Inten    --     2.7356                 4.2721               302.1908

 - Thermochemistry -
 -------------------
 Temperature   298.150 Kelvin.  Pressure   1.00000 Atm.
 Atom     1 has atomic number  6 and mass  12.00000

 Molecular mass:   139.02694 amu.
 Principal axes and moments of inertia in atomic units:
                           1         2         3
     Eigenvalues --   756.878881409.262952166.14182
           X            0.99977   0.02151   0.00001
           Y           -0.02151   0.99977  -0.00001
           Z           -0.00001   0.00001   1.00000
 This molecule is an asymmetric top.
 Rotational symmetry number  1.
 Warning -- assumption of classical behavior for rotation
           may cause significant error
 Rotational temperatures (Kelvin)      0.11444     0.06146     0.03999
 Rotational constants (GHZ):           2.38445     1.28063     0.83316
 Zero-point vibrational energy     282081.2 (Joules/Mol)
                                   67.41902 (Kcal/Mol)
 Warning -- explicit consideration of  10 degrees of freedom as
           vibrations may cause significant error
 Vibrational temperatures:    118.44   209.60   360.80   417.32   546.48
          (Kelvin)            627.09   628.66   774.07   798.47   821.33
                              983.51  1023.89  1067.82  1097.38  1150.65
                             1204.51  1267.37  1274.16  1412.92  1446.49
                             1510.52  1592.22  1669.61  1708.38  1768.66
                             1839.33  1891.18  1969.58  2028.70  2133.41
                             2173.81  2258.84  2327.69  2383.02  4571.96
                             4597.62  4604.97  4633.90  4958.70

 Zero-point correction=                           0.107439 (Hartree/Particle)
 Thermal correction to Energy=                    0.114967
 Thermal correction to Enthalpy=                  0.115911
 Thermal correction to Gibbs Free Energy=         0.074855
 Sum of electronic and zero-point Energies=           -512.054719
 Sum of electronic and thermal Energies=              -512.047191
 Sum of electronic and thermal Enthalpies=            -512.046247
 Sum of electronic and thermal Free Energies=         -512.087303

                     E (Thermal)             CV                S
                      KCal/Mol        Cal/Mol-Kelvin    Cal/Mol-Kelvin
 Total                   72.143             29.214             86.410
 Electronic               0.000              0.000              0.000
 Translational            0.889              2.981             40.700
 Rotational               0.889              2.981             29.226
 Vibrational             70.365             23.252             16.484
 Vibration     1          0.600              1.961              3.835
 Vibration     2          0.617              1.907              2.728
 Vibration     3          0.663              1.761              1.725
 Vibration     4          0.686              1.692              1.474
 Vibration     5          0.750              1.513              1.040
 Vibration     6          0.796              1.392              0.840
 Vibration     7          0.797              1.390              0.836
 Vibration     8          0.893              1.166              0.570
 Vibration     9          0.910              1.129              0.534
 Vibration    10          0.927              1.094              0.503

 Normal termination of Gaussian 09 at Wed Dec 11 11:07:01 2013.
